<VTKFile type="UnstructuredGrid" version="0.1" byte_order="BigEndian">
  <UnstructuredGrid>
    <Piece NumberOfPoints="26" NumberOfCells="36">
      <Points>
        <DataArray type="Float32" NumberOfComponents="3" Format="ascii">
       0.5 0 0
       -1 0.25 0
       0.569996 0.329268 0
       0.333465 0.571283 0
       -0.00745617 0.577012 0
       -0.341181 0.477127 0
       -0.671014 0.364797 0
       -1.29218 0.0305386 0
       -1.2791 -0.311374 0
       -1.01354 -0.564858 0
       -0.684685 -0.727759 0
       -0.32143 -0.727552 0
       -0.0156352 -0.526535 0
       0.238614 -0.259586 0
       -0.503813 -0.486515 0
       -0.10516 0.208371 0
       -0.934297 -0.21599 0
       -0.152246 -0.147317 0
       0.226648 0.27891 0
       -0.412921 0.147368 0
       -0.759288 0.0708048 0
       0.106048 0.00209359 0
       -0.540465 -0.211653 0
       -0.746458 -0.439764 0
       -0.277215 -0.417085 0
       -1.04524 0.00599482 0
        </DataArray>
      </Points>
      <PointData Scalars="scalars">
        <DataArray type="Float32" Name="field" Format="ascii">
       0.721117
       0.750984
       1.32395
       1.52915
       1.58321
       1.52365
       1.40894
       0.0491369
       0.0649496
       0.0957256
       0.0894981
       0.0857259
       0.110721
       0.142676
       0.832402
       1.78155
       0.939908
       1.34344
       1.57872
       1.79233
       1.44312
       1.28742
       1.41297
       0.822741
       0.880283
       0.671339
        </DataArray>
      </PointData>
    <Cells>
      <DataArray type="Int32" Name="connectivity" Format="ascii">
       3 4 18 
       12 13 17 
       22 16 23 
       4 15 18 
       20 16 22 
       0 18 21 
       17 15 19 
       13 0 21 
       17 13 21 
       15 17 21 
       14 22 23 
       8 9 16 
       2 3 18 
       10 11 14 
       7 8 25 
       4 5 15 
       8 16 25 
       0 2 18 
       12 17 24 
       6 1 20 
       5 6 19 
       15 5 19 
       17 19 22 
       19 6 20 
       17 22 24 
       1 7 25 
       22 14 24 
       18 15 21 
       14 11 24 
       11 12 24 
       20 1 25 
       10 14 23 
       9 10 23 
       16 9 23 
       16 20 25 
       19 20 22 
        </DataArray>
        <DataArray type="Int32" Name="offsets" Format="ascii">
       3
       6
       9
       12
       15
       18
       21
       24
       27
       30
       33
       36
       39
       42
       45
       48
       51
       54
       57
       60
       63
       66
       69
       72
       75
       78
       81
       84
       87
       90
       93
       96
       99
       102
       105
       108
       </DataArray>
       <DataArray type="Int32" Name="types" Format="ascii">
5
5
5
5
5
5
5
5
5
5
5
5
5
5
5
5
5
5
5
5
5
5
5
5
5
5
5
5
5
5
5
5
5
5
5
5
        </DataArray>
      </Cells>
    </Piece>
  </UnstructuredGrid>
</VTKFile>
