<VTKFile type="UnstructuredGrid" version="0.1" byte_order="BigEndian">
  <UnstructuredGrid>
    <Piece NumberOfPoints="200" NumberOfCells="280">
      <Points>
        <DataArray type="Float32" NumberOfComponents="3" Format="ascii">
       -1 -1 0
       1 -1 0
       1 1 0
       -1 1 0
       -3.53553 -3.53553 0
       3.53553 -3.53553 0
       3.53553 3.53553 0
       -3.53553 3.53553 0
       -10 -10 0
       10 -10 0
       10 10 0
       -10 10 0
       -0.5 -1 0
       -2.75024e-12 -1 0
       0.5 -1 0
       1 -0.5 0
       1 -2.75024e-12 0
       1 0.5 0
       0.5 1 0
       2.75024e-12 1 0
       -0.5 1 0
       -1 0.5 0
       -1 2.75024e-12 0
       -1 -0.5 0
       -2.90165 -2.90165 0
       -2.26777 -2.26777 0
       -1.63388 -1.63388 0
       2.90165 -2.90165 0
       2.26777 -2.26777 0
       1.63388 -1.63388 0
       2.90165 2.90165 0
       2.26777 2.26777 0
       1.63388 1.63388 0
       -2.90165 2.90165 0
       -2.26777 2.26777 0
       -1.63388 1.63388 0
       -8 -10 0
       -6 -10 0
       -4 -10 0
       -2 -10 0
       -1.22906e-11 -10 0
       2 -10 0
       4 -10 0
       6 -10 0
       8 -10 0
       10 -8 0
       10 -6 0
       10 -4 0
       10 -2 0
       10 -1.22906e-11 0
       10 2 0
       10 4 0
       10 6 0
       10 8 0
       8 10 0
       6 10 0
       4 10 0
       2 10 0
       1.22906e-11 10 0
       -2 10 0
       -4 10 0
       -6 10 0
       -8 10 0
       -10 8 0
       -10 6 0
       -10 4 0
       -10 2 0
       -10 1.22906e-11 0
       -10 -2 0
       -10 -4 0
       -10 -6 0
       -10 -8 0
       1.91342 4.6194 0
       -1.16687e-08 5 0
       -1.91342 4.6194 0
       -4.6194 1.91342 0
       -5 -1.16687e-08 0
       -4.6194 -1.91342 0
       -1.91342 -4.6194 0
       1.16687e-08 -5 0
       1.91342 -4.6194 0
       4.6194 -1.91342 0
       5 1.16687e-08 0
       4.6194 1.91342 0
       -5 -8.26795 0
       -8.26795 5 0
       8.26795 -5 0
       5 8.26795 0
       -8.26795 -5 0
       5 -8.26795 0
       8.26795 5 0
       -5 8.26795 0
       1.28632 -6.46677 0
       6.46677 1.28632 0
       -1.28632 6.46677 0
       -6.46677 -1.28632 0
       -1.28632 -6.46677 0
       6.46677 -1.28632 0
       1.28632 6.46677 0
       -6.46677 1.28632 0
       3.66313 -5.48226 0
       5.48226 3.66313 0
       -3.66313 5.48226 0
       -5.48226 -3.66313 0
       -3.66313 -5.48226 0
       5.48226 -3.66313 0
       3.66313 5.48226 0
       -5.48226 3.66313 0
       -5.45386 -5.46359 0
       -5.46359 5.45386 0
       5.46359 -5.45386 0
       5.45386 5.46359 0
       -3.18491 -7.32448 0
       -7.32448 3.18491 0
       7.32448 -3.18491 0
       3.18491 7.32448 0
       3.18491 -7.32448 0
       7.32448 3.18491 0
       -3.18491 7.32448 0
       -7.32448 -3.18491 0
       9.26358e-09 -7.80064 0
       7.80064 9.26358e-09 0
       -9.26358e-09 7.80064 0
       -7.80064 -9.26358e-09 0
       -8.41725 -7.11712 0
       7.11712 -8.41725 0
       8.41725 7.11712 0
       -7.11712 8.41725 0
       -7.12471 -8.46079 0
       8.46079 -7.12471 0
       7.12471 8.46079 0
       -8.46079 7.12471 0
       -1.57854 -8.42038 0
       8.42038 -1.57854 0
       1.57854 8.42038 0
       -8.42038 1.57854 0
       1.57854 -8.42038 0
       8.42038 1.57854 0
       -1.57854 8.42038 0
       -8.42038 -1.57854 0
       -6.69365 -4.75444 0
       4.75444 -6.69365 0
       6.69365 4.75444 0
       -4.75444 6.69365 0
       -6.70199 4.7461 0
       -4.7461 -6.70199 0
       6.70199 -4.7461 0
       4.7461 6.70199 0
       8.5334 -8.5334 0
       8.5334 8.5334 0
       -8.5334 8.5334 0
       -8.5334 -8.5334 0
       -6.53798 6.52907 0
       6.53798 -6.52907 0
       -6.52907 -6.53798 0
       6.52907 6.53798 0
       3.15269 -8.80256 0
       -3.15269 8.80256 0
       8.80256 3.15269 0
       -8.80256 -3.15269 0
       -3.15269 -8.80256 0
       8.80256 -3.15269 0
       3.15269 8.80256 0
       -8.80256 3.15269 0
       1.56006 3.71455 0
       1.20671 2.8097 0
       0.853354 1.90485 0
       -8.75084e-09 4 0
       -5.83298e-09 3 0
       -2.91511e-09 2 0
       -1.56006 3.71455 0
       -1.20671 2.8097 0
       -0.853354 1.90485 0
       -3.71455 1.56006 0
       -2.8097 1.20671 0
       -1.90485 0.853354 0
       -4 -8.75084e-09 0
       -3 -5.83298e-09 0
       -2 -2.91511e-09 0
       -3.71455 -1.56006 0
       -2.8097 -1.20671 0
       -1.90485 -0.853354 0
       -1.56006 -3.71455 0
       8.75084e-09 -4 0
       1.56006 -3.71455 0
       -1.20671 -2.8097 0
       5.83298e-09 -3 0
       1.20671 -2.8097 0
       -0.853354 -1.90485 0
       2.91511e-09 -2 0
       0.853354 -1.90485 0
       3.71455 -1.56006 0
       2.8097 -1.20671 0
       1.90485 -0.853354 0
       4 8.75084e-09 0
       3 5.83298e-09 0
       2 2.91511e-09 0
       3.71455 1.56006 0
       2.8097 1.20671 0
       1.90485 0.853354 0
        </DataArray>
      </Points>
      <PointData Scalars="scalars">
        <DataArray type="Float32" Name="field" NumberOfComponents="2" Format="ascii">
       0 0 
       0 0 
       0 0 
       0 0 
       0 0 
       0 0 
       0 0 
       0 0 
       0 0 
       0 0 
       0 0 
       0 0 
       0 0 
       0 0 
       0 0 
       0 0 
       0 0 
       0 0 
       0 0 
       0 0 
       0 0 
       0 0 
       0 0 
       0 0 
       0 0 
       0 0 
       0 0 
       0 0 
       0 0 
       0 0 
       0 0 
       0 0 
       0 0 
       0 0 
       0 0 
       0 0 
       0 0 
       0 0 
       0 0 
       0 0 
       0 0 
       0 0 
       0 0 
       0 0 
       0 0 
       0 0 
       0 0 
       0 0 
       0 0 
       0 0 
       0 0 
       0 0 
       0 0 
       0 0 
       0 0 
       0 0 
       0 0 
       0 0 
       0 0 
       0 0 
       0 0 
       0 0 
       0 0 
       0 0 
       0 0 
       0 0 
       0 0 
       0 0 
       0 0 
       0 0 
       0 0 
       0 0 
       0 0 
       0 0 
       0 0 
       0 0 
       0 0 
       0 0 
       0 0 
       0 0 
       0 0 
       0 0 
       0 0 
       0 0 
       0 0 
       0 0 
       0 0 
       0 0 
       0 0 
       0 0 
       0 0 
       0 0 
       0 0 
       0 0 
       0 0 
       0 0 
       0 0 
       0 0 
       0 0 
       0 0 
       0 0 
       0 0 
       0 0 
       0 0 
       0 0 
       0 0 
       0 0 
       0 0 
       0 0 
       0 0 
       0 0 
       0 0 
       0 0 
       0 0 
       0 0 
       0 0 
       0 0 
       0 0 
       0 0 
       0 0 
       0 0 
       0 0 
       0 0 
       0 0 
       0 0 
       0 0 
       0 0 
       0 0 
       0 0 
       0 0 
       0 0 
       0 0 
       0 0 
       0 0 
       0 0 
       0 0 
       0 0 
       0 0 
       0 0 
       0 0 
       0 0 
       0 0 
       0 0 
       0 0 
       0 0 
       0 0 
       0 0 
       0 0 
       0 0 
       0 0 
       0 0 
       0 0 
       0 0 
       0 0 
       0 0 
       0 0 
       0 0 
       0 0 
       0 0 
       0 0 
       0 0 
       0 0 
       0 0 
       0 0 
       0 0 
       0 0 
       0 0 
       0 0 
       0 0 
       0 0 
       0 0 
       0 0 
       0 0 
       0 0 
       0 0 
       0 0 
       0 0 
       0 0 
       0 0 
       0 0 
       0 0 
       0 0 
       0 0 
       0 0 
       0 0 
       0 0 
       0 0 
       0 0 
       0 0 
       0 0 
       0 0 
       0 0 
       0 0 
       0 0 
       0 0 
       0 0 
       0 0 
       0 0 
       0 0 
       0 0 
        </DataArray>
      </PointData>
    <Cells>
      <DataArray type="Int32" Name="connectivity" Format="ascii">
       106 101 111 
       104 103 108 
       105 100 110 
       107 102 109 
       96 104 112 
       97 105 114 
       98 106 115 
       99 107 113 
       103 95 119 
       100 92 116 
       101 93 117 
       102 94 118 
       92 96 120 
       93 97 121 
       94 98 122 
       95 99 123 
       4 103 104 
       5 100 105 
       6 101 106 
       7 102 107 
       98 72 106 
       99 75 107 
       96 78 104 
       97 81 105 
       77 95 103 
       74 94 102 
       80 92 100 
       83 93 101 
       94 73 98 
       95 76 99 
       92 79 96 
       93 82 97 
       67 68 139 
       40 41 136 
       58 59 138 
       49 50 137 
       39 40 132 
       48 49 133 
       57 58 134 
       66 67 135 
       123 67 139 
       120 40 136 
       121 49 137 
       122 58 138 
       40 120 132 
       49 121 133 
       58 122 134 
       67 123 135 
       141 89 153 
       142 90 155 
       143 91 152 
       140 88 154 
       84 145 154 
       87 147 155 
       85 144 152 
       86 146 153 
       89 125 153 
       91 127 152 
       90 126 155 
       88 124 154 
       109 143 152 
       110 141 153 
       111 142 155 
       108 140 154 
       128 84 154 
       130 87 155 
       131 85 152 
       129 86 153 
       42 43 89 
       51 52 90 
       60 61 91 
       69 70 88 
       37 38 84 
       46 47 86 
       55 56 87 
       64 65 85 
       89 43 125 
       90 52 126 
       91 61 127 
       88 70 124 
       43 44 125 
       52 53 126 
       61 62 127 
       70 71 124 
       78 4 104 
       81 5 105 
       72 6 106 
       75 7 107 
       4 77 103 
       5 80 100 
       6 83 101 
       7 74 102 
       73 72 98 
       76 75 99 
       79 78 96 
       82 81 97 
       74 73 94 
       77 76 95 
       80 79 92 
       83 82 93 
       36 37 128 
       45 46 129 
       54 55 130 
       63 64 131 
       144 109 152 
       146 110 153 
       147 111 155 
       145 108 154 
       112 84 160 
       113 85 163 
       114 86 161 
       115 87 162 
       89 116 156 
       91 118 157 
       90 117 158 
       88 119 159 
       64 85 131 
       46 86 129 
       55 87 130 
       37 84 128 
       42 89 156 
       51 90 158 
       60 91 157 
       69 88 159 
       84 38 160 
       85 65 163 
       86 47 161 
       87 56 162 
       8 36 151 
       9 45 148 
       10 54 149 
       11 63 150 
       71 8 151 
       44 9 148 
       53 10 149 
       62 11 150 
       108 103 140 
       110 100 141 
       111 101 142 
       109 102 143 
       106 111 147 
       104 108 145 
       105 110 146 
       107 109 144 
       112 104 145 
       115 106 147 
       114 105 146 
       113 107 144 
       103 119 140 
       100 116 141 
       102 118 143 
       101 117 142 
       96 112 132 
       97 114 133 
       98 115 134 
       99 113 135 
       119 95 139 
       116 92 136 
       117 93 137 
       118 94 138 
       84 112 145 
       85 113 144 
       86 114 146 
       87 115 147 
       119 88 140 
       116 89 141 
       117 90 142 
       118 91 143 
       120 96 132 
       121 97 133 
       122 98 134 
       123 99 135 
       92 120 136 
       93 121 137 
       94 122 138 
       95 123 139 
       36 128 151 
       45 129 148 
       54 130 149 
       63 131 150 
       139 68 159 
       136 41 156 
       138 59 157 
       137 50 158 
       39 132 160 
       48 133 161 
       57 134 162 
       66 135 163 
       124 71 151 
       125 44 148 
       126 53 149 
       127 62 150 
       41 42 156 
       50 51 158 
       59 60 157 
       68 69 159 
       38 39 160 
       47 48 161 
       56 57 162 
       65 66 163 
       129 125 148 
       130 126 149 
       131 127 150 
       128 124 151 
       125 129 153 
       127 131 152 
       124 128 154 
       126 130 155 
       132 112 160 
       135 113 163 
       133 114 161 
       134 115 162 
       119 139 159 
       116 136 156 
       117 137 158 
       118 138 157 
       6 72 164 30 
       30 164 165 31 
       31 165 166 32 
       32 166 18 2 
       72 73 167 164 
       164 167 168 165 
       165 168 169 166 
       166 169 19 18 
       73 74 170 167 
       167 170 171 168 
       168 171 172 169 
       169 172 20 19 
       74 7 33 170 
       170 33 34 171 
       171 34 35 172 
       172 35 3 20 
       7 75 173 33 
       33 173 174 34 
       34 174 175 35 
       35 175 21 3 
       75 76 176 173 
       173 176 177 174 
       174 177 178 175 
       175 178 22 21 
       76 77 179 176 
       176 179 180 177 
       177 180 181 178 
       178 181 23 22 
       77 4 24 179 
       179 24 25 180 
       180 25 26 181 
       181 26 0 23 
       4 78 182 24 
       78 79 183 182 
       79 80 184 183 
       80 5 27 184 
       24 182 185 25 
       182 183 186 185 
       183 184 187 186 
       184 27 28 187 
       25 185 188 26 
       185 186 189 188 
       186 187 190 189 
       187 28 29 190 
       26 188 12 0 
       188 189 13 12 
       189 190 14 13 
       190 29 1 14 
       5 81 191 27 
       27 191 192 28 
       28 192 193 29 
       29 193 15 1 
       81 82 194 191 
       191 194 195 192 
       192 195 196 193 
       193 196 16 15 
       82 83 197 194 
       194 197 198 195 
       195 198 199 196 
       196 199 17 16 
       83 6 30 197 
       197 30 31 198 
       198 31 32 199 
       199 32 2 17 
        </DataArray>
        <DataArray type="Int32" Name="offsets" Format="ascii">
       3
       6
       9
       12
       15
       18
       21
       24
       27
       30
       33
       36
       39
       42
       45
       48
       51
       54
       57
       60
       63
       66
       69
       72
       75
       78
       81
       84
       87
       90
       93
       96
       99
       102
       105
       108
       111
       114
       117
       120
       123
       126
       129
       132
       135
       138
       141
       144
       147
       150
       153
       156
       159
       162
       165
       168
       171
       174
       177
       180
       183
       186
       189
       192
       195
       198
       201
       204
       207
       210
       213
       216
       219
       222
       225
       228
       231
       234
       237
       240
       243
       246
       249
       252
       255
       258
       261
       264
       267
       270
       273
       276
       279
       282
       285
       288
       291
       294
       297
       300
       303
       306
       309
       312
       315
       318
       321
       324
       327
       330
       333
       336
       339
       342
       345
       348
       351
       354
       357
       360
       363
       366
       369
       372
       375
       378
       381
       384
       387
       390
       393
       396
       399
       402
       405
       408
       411
       414
       417
       420
       423
       426
       429
       432
       435
       438
       441
       444
       447
       450
       453
       456
       459
       462
       465
       468
       471
       474
       477
       480
       483
       486
       489
       492
       495
       498
       501
       504
       507
       510
       513
       516
       519
       522
       525
       528
       531
       534
       537
       540
       543
       546
       549
       552
       555
       558
       561
       564
       567
       570
       573
       576
       579
       582
       585
       588
       591
       594
       597
       600
       603
       606
       609
       612
       615
       618
       621
       624
       627
       630
       633
       636
       639
       642
       645
       648
       652
       656
       660
       664
       668
       672
       676
       680
       684
       688
       692
       696
       700
       704
       708
       712
       716
       720
       724
       728
       732
       736
       740
       744
       748
       752
       756
       760
       764
       768
       772
       776
       780
       784
       788
       792
       796
       800
       804
       808
       812
       816
       820
       824
       828
       832
       836
       840
       844
       848
       852
       856
       860
       864
       868
       872
       876
       880
       884
       888
       892
       896
       900
       904
       </DataArray>
       <DataArray type="Int32" Name="types" Format="ascii">
5
5
5
5
5
5
5
5
5
5
5
5
5
5
5
5
5
5
5
5
5
5
5
5
5
5
5
5
5
5
5
5
5
5
5
5
5
5
5
5
5
5
5
5
5
5
5
5
5
5
5
5
5
5
5
5
5
5
5
5
5
5
5
5
5
5
5
5
5
5
5
5
5
5
5
5
5
5
5
5
5
5
5
5
5
5
5
5
5
5
5
5
5
5
5
5
5
5
5
5
5
5
5
5
5
5
5
5
5
5
5
5
5
5
5
5
5
5
5
5
5
5
5
5
5
5
5
5
5
5
5
5
5
5
5
5
5
5
5
5
5
5
5
5
5
5
5
5
5
5
5
5
5
5
5
5
5
5
5
5
5
5
5
5
5
5
5
5
5
5
5
5
5
5
5
5
5
5
5
5
5
5
5
5
5
5
5
5
5
5
5
5
5
5
5
5
5
5
5
5
5
5
5
5
5
5
5
5
5
5
5
5
5
5
5
5
9
9
9
9
9
9
9
9
9
9
9
9
9
9
9
9
9
9
9
9
9
9
9
9
9
9
9
9
9
9
9
9
9
9
9
9
9
9
9
9
9
9
9
9
9
9
9
9
9
9
9
9
9
9
9
9
9
9
9
9
9
9
9
9
        </DataArray>
      </Cells>
    </Piece>
  </UnstructuredGrid>
</VTKFile>
