<VTKFile type="UnstructuredGrid" version="0.1" byte_order="BigEndian">
  <UnstructuredGrid>
    <Piece NumberOfPoints="2500" NumberOfCells="2401">
      <Points>
        <DataArray type="Float32" NumberOfComponents="3" Format="ascii">
       -1 -1 0
       1 -1 0
       1 1 0
       -1 1 0
       -0.959184 -1 0
       -0.918367 -1 0
       -0.877551 -1 0
       -0.836735 -1 0
       -0.795918 -1 0
       -0.755102 -1 0
       -0.714286 -1 0
       -0.673469 -1 0
       -0.632653 -1 0
       -0.591837 -1 0
       -0.55102 -1 0
       -0.510204 -1 0
       -0.469388 -1 0
       -0.428571 -1 0
       -0.387755 -1 0
       -0.346939 -1 0
       -0.306122 -1 0
       -0.265306 -1 0
       -0.22449 -1 0
       -0.183673 -1 0
       -0.142857 -1 0
       -0.102041 -1 0
       -0.0612245 -1 0
       -0.0204082 -1 0
       0.0204082 -1 0
       0.0612245 -1 0
       0.102041 -1 0
       0.142857 -1 0
       0.183673 -1 0
       0.22449 -1 0
       0.265306 -1 0
       0.306122 -1 0
       0.346939 -1 0
       0.387755 -1 0
       0.428571 -1 0
       0.469388 -1 0
       0.510204 -1 0
       0.55102 -1 0
       0.591837 -1 0
       0.632653 -1 0
       0.673469 -1 0
       0.714286 -1 0
       0.755102 -1 0
       0.795918 -1 0
       0.836735 -1 0
       0.877551 -1 0
       0.918367 -1 0
       0.959184 -1 0
       1 -0.959184 0
       1 -0.918367 0
       1 -0.877551 0
       1 -0.836735 0
       1 -0.795918 0
       1 -0.755102 0
       1 -0.714286 0
       1 -0.673469 0
       1 -0.632653 0
       1 -0.591837 0
       1 -0.55102 0
       1 -0.510204 0
       1 -0.469388 0
       1 -0.428571 0
       1 -0.387755 0
       1 -0.346939 0
       1 -0.306122 0
       1 -0.265306 0
       1 -0.22449 0
       1 -0.183673 0
       1 -0.142857 0
       1 -0.102041 0
       1 -0.0612245 0
       1 -0.0204082 0
       1 0.0204082 0
       1 0.0612245 0
       1 0.102041 0
       1 0.142857 0
       1 0.183673 0
       1 0.22449 0
       1 0.265306 0
       1 0.306122 0
       1 0.346939 0
       1 0.387755 0
       1 0.428571 0
       1 0.469388 0
       1 0.510204 0
       1 0.55102 0
       1 0.591837 0
       1 0.632653 0
       1 0.673469 0
       1 0.714286 0
       1 0.755102 0
       1 0.795918 0
       1 0.836735 0
       1 0.877551 0
       1 0.918367 0
       1 0.959184 0
       0.959184 1 0
       0.918367 1 0
       0.877551 1 0
       0.836735 1 0
       0.795918 1 0
       0.755102 1 0
       0.714286 1 0
       0.673469 1 0
       0.632653 1 0
       0.591837 1 0
       0.55102 1 0
       0.510204 1 0
       0.469388 1 0
       0.428571 1 0
       0.387755 1 0
       0.346939 1 0
       0.306122 1 0
       0.265306 1 0
       0.22449 1 0
       0.183673 1 0
       0.142857 1 0
       0.102041 1 0
       0.0612245 1 0
       0.0204082 1 0
       -0.0204082 1 0
       -0.0612245 1 0
       -0.102041 1 0
       -0.142857 1 0
       -0.183673 1 0
       -0.22449 1 0
       -0.265306 1 0
       -0.306122 1 0
       -0.346939 1 0
       -0.387755 1 0
       -0.428571 1 0
       -0.469388 1 0
       -0.510204 1 0
       -0.55102 1 0
       -0.591837 1 0
       -0.632653 1 0
       -0.673469 1 0
       -0.714286 1 0
       -0.755102 1 0
       -0.795918 1 0
       -0.836735 1 0
       -0.877551 1 0
       -0.918367 1 0
       -0.959184 1 0
       -1 0.959184 0
       -1 0.918367 0
       -1 0.877551 0
       -1 0.836735 0
       -1 0.795918 0
       -1 0.755102 0
       -1 0.714286 0
       -1 0.673469 0
       -1 0.632653 0
       -1 0.591837 0
       -1 0.55102 0
       -1 0.510204 0
       -1 0.469388 0
       -1 0.428571 0
       -1 0.387755 0
       -1 0.346939 0
       -1 0.306122 0
       -1 0.265306 0
       -1 0.22449 0
       -1 0.183673 0
       -1 0.142857 0
       -1 0.102041 0
       -1 0.0612245 0
       -1 0.0204082 0
       -1 -0.0204082 0
       -1 -0.0612245 0
       -1 -0.102041 0
       -1 -0.142857 0
       -1 -0.183673 0
       -1 -0.22449 0
       -1 -0.265306 0
       -1 -0.306122 0
       -1 -0.346939 0
       -1 -0.387755 0
       -1 -0.428571 0
       -1 -0.469388 0
       -1 -0.510204 0
       -1 -0.55102 0
       -1 -0.591837 0
       -1 -0.632653 0
       -1 -0.673469 0
       -1 -0.714286 0
       -1 -0.755102 0
       -1 -0.795918 0
       -1 -0.836735 0
       -1 -0.877551 0
       -1 -0.918367 0
       -1 -0.959184 0
       -0.959184 0.959184 0
       -0.918367 0.959184 0
       -0.877551 0.959184 0
       -0.836735 0.959184 0
       -0.795918 0.959184 0
       -0.755102 0.959184 0
       -0.714286 0.959184 0
       -0.673469 0.959184 0
       -0.632653 0.959184 0
       -0.591837 0.959184 0
       -0.55102 0.959184 0
       -0.510204 0.959184 0
       -0.469388 0.959184 0
       -0.428571 0.959184 0
       -0.387755 0.959184 0
       -0.346939 0.959184 0
       -0.306122 0.959184 0
       -0.265306 0.959184 0
       -0.22449 0.959184 0
       -0.183673 0.959184 0
       -0.142857 0.959184 0
       -0.102041 0.959184 0
       -0.0612245 0.959184 0
       -0.0204082 0.959184 0
       0.0204082 0.959184 0
       0.0612245 0.959184 0
       0.102041 0.959184 0
       0.142857 0.959184 0
       0.183673 0.959184 0
       0.22449 0.959184 0
       0.265306 0.959184 0
       0.306122 0.959184 0
       0.346939 0.959184 0
       0.387755 0.959184 0
       0.428571 0.959184 0
       0.469388 0.959184 0
       0.510204 0.959184 0
       0.55102 0.959184 0
       0.591837 0.959184 0
       0.632653 0.959184 0
       0.673469 0.959184 0
       0.714286 0.959184 0
       0.755102 0.959184 0
       0.795918 0.959184 0
       0.836735 0.959184 0
       0.877551 0.959184 0
       0.918367 0.959184 0
       0.959184 0.959184 0
       -0.959184 0.918367 0
       -0.918367 0.918367 0
       -0.877551 0.918367 0
       -0.836735 0.918367 0
       -0.795918 0.918367 0
       -0.755102 0.918367 0
       -0.714286 0.918367 0
       -0.673469 0.918367 0
       -0.632653 0.918367 0
       -0.591837 0.918367 0
       -0.55102 0.918367 0
       -0.510204 0.918367 0
       -0.469388 0.918367 0
       -0.428571 0.918367 0
       -0.387755 0.918367 0
       -0.346939 0.918367 0
       -0.306122 0.918367 0
       -0.265306 0.918367 0
       -0.22449 0.918367 0
       -0.183673 0.918367 0
       -0.142857 0.918367 0
       -0.102041 0.918367 0
       -0.0612245 0.918367 0
       -0.0204082 0.918367 0
       0.0204082 0.918367 0
       0.0612245 0.918367 0
       0.102041 0.918367 0
       0.142857 0.918367 0
       0.183673 0.918367 0
       0.22449 0.918367 0
       0.265306 0.918367 0
       0.306122 0.918367 0
       0.346939 0.918367 0
       0.387755 0.918367 0
       0.428571 0.918367 0
       0.469388 0.918367 0
       0.510204 0.918367 0
       0.55102 0.918367 0
       0.591837 0.918367 0
       0.632653 0.918367 0
       0.673469 0.918367 0
       0.714286 0.918367 0
       0.755102 0.918367 0
       0.795918 0.918367 0
       0.836735 0.918367 0
       0.877551 0.918367 0
       0.918367 0.918367 0
       0.959184 0.918367 0
       -0.959184 0.877551 0
       -0.918367 0.877551 0
       -0.877551 0.877551 0
       -0.836735 0.877551 0
       -0.795918 0.877551 0
       -0.755102 0.877551 0
       -0.714286 0.877551 0
       -0.673469 0.877551 0
       -0.632653 0.877551 0
       -0.591837 0.877551 0
       -0.55102 0.877551 0
       -0.510204 0.877551 0
       -0.469388 0.877551 0
       -0.428571 0.877551 0
       -0.387755 0.877551 0
       -0.346939 0.877551 0
       -0.306122 0.877551 0
       -0.265306 0.877551 0
       -0.22449 0.877551 0
       -0.183673 0.877551 0
       -0.142857 0.877551 0
       -0.102041 0.877551 0
       -0.0612245 0.877551 0
       -0.0204082 0.877551 0
       0.0204082 0.877551 0
       0.0612245 0.877551 0
       0.102041 0.877551 0
       0.142857 0.877551 0
       0.183673 0.877551 0
       0.22449 0.877551 0
       0.265306 0.877551 0
       0.306122 0.877551 0
       0.346939 0.877551 0
       0.387755 0.877551 0
       0.428571 0.877551 0
       0.469388 0.877551 0
       0.510204 0.877551 0
       0.55102 0.877551 0
       0.591837 0.877551 0
       0.632653 0.877551 0
       0.673469 0.877551 0
       0.714286 0.877551 0
       0.755102 0.877551 0
       0.795918 0.877551 0
       0.836735 0.877551 0
       0.877551 0.877551 0
       0.918367 0.877551 0
       0.959184 0.877551 0
       -0.959184 0.836735 0
       -0.918367 0.836735 0
       -0.877551 0.836735 0
       -0.836735 0.836735 0
       -0.795918 0.836735 0
       -0.755102 0.836735 0
       -0.714286 0.836735 0
       -0.673469 0.836735 0
       -0.632653 0.836735 0
       -0.591837 0.836735 0
       -0.55102 0.836735 0
       -0.510204 0.836735 0
       -0.469388 0.836735 0
       -0.428571 0.836735 0
       -0.387755 0.836735 0
       -0.346939 0.836735 0
       -0.306122 0.836735 0
       -0.265306 0.836735 0
       -0.22449 0.836735 0
       -0.183673 0.836735 0
       -0.142857 0.836735 0
       -0.102041 0.836735 0
       -0.0612245 0.836735 0
       -0.0204082 0.836735 0
       0.0204082 0.836735 0
       0.0612245 0.836735 0
       0.102041 0.836735 0
       0.142857 0.836735 0
       0.183673 0.836735 0
       0.22449 0.836735 0
       0.265306 0.836735 0
       0.306122 0.836735 0
       0.346939 0.836735 0
       0.387755 0.836735 0
       0.428571 0.836735 0
       0.469388 0.836735 0
       0.510204 0.836735 0
       0.55102 0.836735 0
       0.591837 0.836735 0
       0.632653 0.836735 0
       0.673469 0.836735 0
       0.714286 0.836735 0
       0.755102 0.836735 0
       0.795918 0.836735 0
       0.836735 0.836735 0
       0.877551 0.836735 0
       0.918367 0.836735 0
       0.959184 0.836735 0
       -0.959184 0.795918 0
       -0.918367 0.795918 0
       -0.877551 0.795918 0
       -0.836735 0.795918 0
       -0.795918 0.795918 0
       -0.755102 0.795918 0
       -0.714286 0.795918 0
       -0.673469 0.795918 0
       -0.632653 0.795918 0
       -0.591837 0.795918 0
       -0.55102 0.795918 0
       -0.510204 0.795918 0
       -0.469388 0.795918 0
       -0.428571 0.795918 0
[...]
      <PointData Scalars="scalars">
        <DataArray type="Float32" Name="field" NumberOfComponents="2" Format="ascii">
       -0.192811 -1.97344 
       1.97344 -1.97344 
       1.97344 0.192811 
       -0.192811 0.192811 
       -1.13061 -1.97947 
       -1.83673 -1.97947 
       -1.7551 -1.97947 
       -1.67347 -1.97947 
       -1.59184 -1.97947 
       -1.5102 -1.97947 
       -1.42857 -1.97947 
       -1.34694 -1.97947 
       -1.26531 -1.97947 
       -1.18367 -1.97947 
       -1.10204 -1.97947 
       -1.02041 -1.97947 
       -0.938776 -1.97947 
       -0.857143 -1.97947 
       -0.77551 -1.97947 
       -0.693878 -1.97947 
       -0.612245 -1.97947 
       -0.530612 -1.97947 
       -0.44898 -1.97947 
       -0.367347 -1.97947 
       -0.285714 -1.97947 
       -0.204082 -1.97947 
       -0.122449 -1.97947 
       -0.0408163 -1.97947 
       0.0408163 -1.97947 
       0.122449 -1.97947 
       0.204082 -1.97947 
       0.285714 -1.97947 
       0.367347 -1.97947 
       0.44898 -1.97947 
       0.530612 -1.97947 
       0.612245 -1.97947 
       0.693878 -1.97947 
       0.77551 -1.97947 
       0.857143 -1.97947 
       0.938776 -1.97947 
       1.02041 -1.97947 
       1.10204 -1.97947 
       1.18367 -1.97947 
       1.26531 -1.97947 
       1.34694 -1.97947 
       1.42857 -1.97947 
       1.5102 -1.97947 
       1.59184 -1.97947 
       1.67347 -1.97947 
       1.7551 -1.97947 
       1.83673 -1.97947 
       1.92245 -1.97947 
       1.97947 -1.92245 
       1.97947 -1.83673 
       1.97947 -1.7551 
       1.97947 -1.67347 
       1.97947 -1.59184 
       1.97947 -1.5102 
       1.97947 -1.42857 
       1.97947 -1.34694 
       1.97947 -1.26531 
       1.97947 -1.18367 
       1.97947 -1.10204 
       1.97947 -1.02041 
       1.97947 -0.938776 
       1.97947 -0.857143 
       1.97947 -0.77551 
       1.97947 -0.693878 
       1.97947 -0.612245 
       1.97947 -0.530612 
       1.97947 -0.44898 
       1.97947 -0.367347 
       1.97947 -0.285714 
       1.97947 -0.204082 
       1.97947 -0.122449 
       1.97947 -0.0408163 
       1.97947 0.0408163 
       1.97947 0.122449 
       1.97947 0.204082 
       1.97947 0.285714 
       1.97947 0.367347 
       1.97947 0.44898 
       1.97947 0.530612 
       1.97947 0.612245 
       1.97947 0.693878 
       1.97947 0.77551 
       1.97947 0.857143 
       1.97947 0.938776 
       1.97947 1.02041 
       1.97947 1.10204 
       1.97947 1.18367 
       1.97947 1.26531 
       1.97947 1.34694 
       1.97947 1.42857 
       1.97947 1.5102 
       1.97947 1.59184 
       1.97947 1.67347 
       1.97947 1.7551 
       1.97947 1.83673 
       1.97947 1.13061 
       1.92245 0.00387549 
       1.83673 0.00387549 
       1.7551 0.00387549 
       1.67347 0.00387549 
       1.59184 0.00387549 
       1.5102 0.00387549 
       1.42857 0.00387549 
       1.34694 0.00387549 
       1.26531 0.00387549 
       1.18367 0.00387549 
       1.10204 0.00387549 
       1.02041 0.00387549 
       0.938776 0.00387549 
       0.857143 0.00387549 
       0.77551 0.00387549 
       0.693878 0.00387549 
       0.612245 0.00387549 
       0.530612 0.00387549 
       0.44898 0.00387549 
       0.367347 0.00387549 
       0.285714 0.00387549 
       0.204082 0.00387549 
       0.122449 0.00387549 
       0.0408163 0.00387549 
       -0.0408163 0.00387549 
       -0.122449 0.00387549 
       -0.204082 0.00387549 
       -0.285714 0.00387549 
       -0.367347 0.00387549 
       -0.44898 0.00387549 
       -0.530612 0.00387549 
       -0.612245 0.00387549 
       -0.693878 0.00387549 
       -0.77551 0.00387549 
       -0.857143 0.00387549 
       -0.938776 0.00387549 
       -1.02041 0.00387549 
       -1.10204 0.00387549 
       -1.18367 0.00387549 
       -1.26531 0.00387549 
       -1.34694 0.00387549 
       -1.42857 0.00387549 
       -1.5102 0.00387549 
       -1.59184 0.00387549 
       -1.67347 0.00387549 
       -1.7551 0.00387549 
       -1.83673 0.00387549 
       -1.13061 0.00387549 
       -0.00387549 1.13061 
       -0.00387549 1.83673 
       -0.00387549 1.7551 
       -0.00387549 1.67347 
       -0.00387549 1.59184 
       -0.00387549 1.5102 
       -0.00387549 1.42857 
       -0.00387549 1.34694 
       -0.00387549 1.26531 
       -0.00387549 1.18367 
       -0.00387549 1.10204 
       -0.00387549 1.02041 
       -0.00387549 0.938776 
       -0.00387549 0.857143 
       -0.00387549 0.77551 
       -0.00387549 0.693878 
       -0.00387549 0.612245 
       -0.00387549 0.530612 
       -0.00387549 0.44898 
       -0.00387549 0.367347 
       -0.00387549 0.285714 
       -0.00387549 0.204082 
       -0.00387549 0.122449 
       -0.00387549 0.0408163 
       -0.00387549 -0.0408163 
       -0.00387549 -0.122449 
       -0.00387549 -0.204082 
       -0.00387549 -0.285714 
       -0.00387549 -0.367347 
       -0.00387549 -0.44898 
       -0.00387549 -0.530612 
       -0.00387549 -0.612245 
       -0.00387549 -0.693878 
       -0.00387549 -0.77551 
       -0.00387549 -0.857143 
       -0.00387549 -0.938776 
       -0.00387549 -1.02041 
       -0.00387549 -1.10204 
       -0.00387549 -1.18367 
       -0.00387549 -1.26531 
       -0.00387549 -1.34694 
       -0.00387549 -1.42857 
       -0.00387549 -1.5102 
       -0.00387549 -1.59184 
       -0.00387549 -1.67347 
       -0.00387549 -1.7551 
       -0.00387549 -1.83673 
       -0.00387549 -1.92245 
       -1.13061 1.13061 
       -1.83673 1.13061 
       -1.7551 1.13061 
       -1.67347 1.13061 
       -1.59184 1.13061 
       -1.5102 1.13061 
       -1.42857 1.13061 
       -1.34694 1.13061 
       -1.26531 1.13061 
       -1.18367 1.13061 
       -1.10204 1.13061 
       -1.02041 1.13061 
       -0.938776 1.13061 
       -0.857143 1.13061 
       -0.77551 1.13061 
       -0.693878 1.13061 
       -0.612245 1.13061 
       -0.530612 1.13061 
       -0.44898 1.13061 
       -0.367347 1.13061 
       -0.285714 1.13061 
       -0.204082 1.13061 
       -0.122449 1.13061 
       -0.0408163 1.13061 
       0.0408163 1.13061 
       0.122449 1.13061 
       0.204082 1.13061 
       0.285714 1.13061 
       0.367347 1.13061 
       0.44898 1.13061 
       0.530612 1.13061 
       0.612245 1.13061 
       0.693878 1.13061 
       0.77551 1.13061 
       0.857143 1.13061 
       0.938776 1.13061 
       1.02041 1.13061 
       1.10204 1.13061 
       1.18367 1.13061 
       1.26531 1.13061 
       1.34694 1.13061 
       1.42857 1.13061 
       1.5102 1.13061 
       1.59184 1.13061 
       1.67347 1.13061 
       1.7551 1.13061 
       1.83673 1.13061 
       1.92245 1.13061 
       -1.13061 1.83673 
       -1.83673 1.83673 
       -1.7551 1.83673 
       -1.67347 1.83673 
       -1.59184 1.83673 
       -1.5102 1.83673 
       -1.42857 1.83673 
       -1.34694 1.83673 
       -1.26531 1.83673 
       -1.18367 1.83673 
       -1.10204 1.83673 
       -1.02041 1.83673 
       -0.938776 1.83673 
       -0.857143 1.83673 
       -0.77551 1.83673 
       -0.693878 1.83673 
       -0.612245 1.83673 
       -0.530612 1.83673 
       -0.44898 1.83673 
       -0.367347 1.83673 
       -0.285714 1.83673 
       -0.204082 1.83673 
       -0.122449 1.83673 
       -0.0408163 1.83673 
       0.0408163 1.83673 
       0.122449 1.83673 
       0.204082 1.83673 
       0.285714 1.83673 
       0.367347 1.83673 
       0.44898 1.83673 
       0.530612 1.83673 
       0.612245 1.83673 
       0.693878 1.83673 
       0.77551 1.83673 
       0.857143 1.83673 
       0.938776 1.83673 
       1.02041 1.83673 
       1.10204 1.83673 
       1.18367 1.83673 
       1.26531 1.83673 
       1.34694 1.83673 
       1.42857 1.83673 
       1.5102 1.83673 
       1.59184 1.83673 
       1.67347 1.83673 
       1.7551 1.83673 
       1.83673 1.83673 
       1.92245 1.83673 
       -1.13061 1.7551 
       -1.83673 1.7551 
       -1.7551 1.7551 
       -1.67347 1.7551 
       -1.59184 1.7551 
       -1.5102 1.7551 
       -1.42857 1.7551 
       -1.34694 1.7551 
       -1.26531 1.7551 
       -1.18367 1.7551 
       -1.10204 1.7551 
       -1.02041 1.7551 
       -0.938776 1.7551 
       -0.857143 1.7551 
       -0.77551 1.7551 
       -0.693878 1.7551 
       -0.612245 1.7551 
       -0.530612 1.7551 
       -0.44898 1.7551 
       -0.367347 1.7551 
       -0.285714 1.7551 
       -0.204082 1.7551 
       -0.122449 1.7551 
       -0.0408163 1.7551 
       0.0408163 1.7551 
       0.122449 1.7551 
       0.204082 1.7551 
       0.285714 1.7551 
       0.367347 1.7551 
       0.44898 1.7551 
       0.530612 1.7551 
       0.612245 1.7551 
       0.693878 1.7551 
       0.77551 1.7551 
       0.857143 1.7551 
       0.938776 1.7551 
       1.02041 1.7551 
       1.10204 1.7551 
       1.18367 1.7551 
       1.26531 1.7551 
       1.34694 1.7551 
       1.42857 1.7551 
       1.5102 1.7551 
       1.59184 1.7551 
       1.67347 1.7551 
       1.7551 1.7551 
       1.83673 1.7551 
       1.92245 1.7551 
       -1.13061 1.67347 
       -1.83673 1.67347 
       -1.7551 1.67347 
       -1.67347 1.67347 
       -1.59184 1.67347 
       -1.5102 1.67347 
       -1.42857 1.67347 
       -1.34694 1.67347 
       -1.26531 1.67347 
       -1.18367 1.67347 
       -1.10204 1.67347 
       -1.02041 1.67347 
       -0.938776 1.67347 
       -0.857143 1.67347 
       -0.77551 1.67347 
       -0.693878 1.67347 
       -0.612245 1.67347 
       -0.530612 1.67347 
       -0.44898 1.67347 
       -0.367347 1.67347 
       -0.285714 1.67347 
       -0.204082 1.67347 
       -0.122449 1.67347 
       -0.0408163 1.67347 
       0.0408163 1.67347 
       0.122449 1.67347 
       0.204082 1.67347 
       0.285714 1.67347 
       0.367347 1.67347 
       0.44898 1.67347 
       0.530612 1.67347 
       0.612245 1.67347 
       0.693878 1.67347 
       0.77551 1.67347 
       0.857143 1.67347 
       0.938776 1.67347 
       1.02041 1.67347 
       1.10204 1.67347 
       1.18367 1.67347 
       1.26531 1.67347 
       1.34694 1.67347 
       1.42857 1.67347 
       1.5102 1.67347 
       1.59184 1.67347 
       1.67347 1.67347 
       1.7551 1.67347 
       1.83673 1.67347 
       1.92245 1.67347 
       -1.13061 1.59184 
       -1.83673 1.59184 
       -1.7551 1.59184 
       -1.67347 1.59184 
       -1.59184 1.59184 
       -1.5102 1.59184 
       -1.42857 1.59184 
       -1.34694 1.59184 
       -1.26531 1.59184 
       -1.18367 1.59184 
       -1.10204 1.59184 
       -1.02041 1.59184 
       -0.938776 1.59184 
       -0.857143 1.59184 
       -0.77551 1.59184 
       -0.693878 1.59184 
       -0.612245 1.59184 
       -0.530612 1.59184 
       -0.44898 1.59184 
       -0.367347 1.59184 
       -0.285714 1.59184 
       -0.204082 1.59184 
       -0.122449 1.59184 
       -0.0408163 1.59184 
       0.0408163 1.59184 
       0.122449 1.59184 
       0.204082 1.59184 
       0.285714 1.59184 
       0.367347 1.59184 
       0.44898 1.59184 
       0.530612 1.59184 
       0.612245 1.59184 
       0.693878 1.59184 
       0.77551 1.59184 
       0.857143 1.59184 
       0.938776 1.59184 
       1.02041 1.59184 
       1.10204 1.59184 
       1.18367 1.59184 
       1.26531 1.59184 
       1.34694 1.59184 
       1.42857 1.59184 
       1.5102 1.59184 
       1.59184 1.59184 
       1.67347 1.59184 
       1.7551 1.59184 
       1.83673 1.59184 
       1.92245 1.59184 
       -1.13061 1.5102 
       -1.83673 1.5102 
       -1.7551 1.5102 
       -1.67347 1.5102 
       -1.59184 1.5102 
       -1.5102 1.5102 
       -1.42857 1.5102 
       -1.34694 1.5102 
       -1.26531 1.5102 
       -1.18367 1.5102 
       -1.10204 1.5102 
       -1.02041 1.5102 
       -0.938776 1.5102 
       -0.857143 1.5102 
       -0.77551 1.5102 
       -0.693878 1.5102 
       -0.612245 1.5102 
       -0.530612 1.5102 
       -0.44898 1.5102 
       -0.367347 1.5102 
       -0.285714 1.5102 
       -0.204082 1.5102 
       -0.122449 1.5102 
       -0.0408163 1.5102 
       0.0408163 1.5102 
       0.122449 1.5102 
       0.204082 1.5102 
       0.285714 1.5102 
       0.367347 1.5102 
       0.44898 1.5102 
       0.530612 1.5102 
       0.612245 1.5102 
       0.693878 1.5102 
       0.77551 1.5102 
       0.857143 1.5102 
       0.938776 1.5102 
       1.02041 1.5102 
       1.10204 1.5102 
       1.18367 1.5102 
       1.26531 1.5102 
       1.34694 1.5102 
       1.42857 1.5102 
       1.5102 1.5102 
       1.59184 1.5102 
       1.67347 1.5102 
       1.7551 1.5102 
       1.83673 1.5102 
       1.92245 1.5102 
       -1.13061 1.42857 
       -1.83673 1.42857 
       -1.7551 1.42857 
       -1.67347 1.42857 
       -1.59184 1.42857 
       -1.5102 1.42857 
       -1.42857 1.42857 
       -1.34694 1.42857 
       -1.26531 1.42857 
       -1.18367 1.42857 
       -1.10204 1.42857 
       -1.02041 1.42857 
       -0.938776 1.42857 
       -0.857143 1.42857 
       -0.77551 1.42857 
       -0.693878 1.42857 
       -0.612245 1.42857 
       -0.530612 1.42857 
       -0.44898 1.42857 
       -0.367347 1.42857 
       -0.285714 1.42857 
       -0.204082 1.42857 
       -0.122449 1.42857 
       -0.0408163 1.42857 
       0.0408163 1.42857 
       0.122449 1.42857 
       0.204082 1.42857 
       0.285714 1.42857 
       0.367347 1.42857 
       0.44898 1.42857 
       0.530612 1.42857 
       0.612245 1.42857 
       0.693878 1.42857 
       0.77551 1.42857 
       0.857143 1.42857 
       0.938776 1.42857 
       1.02041 1.42857 
       1.10204 1.42857 
       1.18367 1.42857 
       1.26531 1.42857 
       1.34694 1.42857 
       1.42857 1.42857 
       1.5102 1.42857 
       1.59184 1.42857 
       1.67347 1.42857 
       1.7551 1.42857 
       1.83673 1.42857 
       1.92245 1.42857 
       -1.13061 1.34694 
       -1.83673 1.34694 
       -1.7551 1.34694 
       -1.67347 1.34694 
       -1.59184 1.34694 
       -1.5102 1.34694 
       -1.42857 1.34694 
       -1.34694 1.34694 
       -1.26531 1.34694 
       -1.18367 1.34694 
       -1.10204 1.34694 
       -1.02041 1.34694 
       -0.938776 1.34694 
       -0.857143 1.34694 
       -0.77551 1.34694 
       -0.693878 1.34694 
       -0.612245 1.34694 
       -0.530612 1.34694 
       -0.44898 1.34694 
       -0.367347 1.34694 
       -0.285714 1.34694 
       -0.204082 1.34694 
       -0.122449 1.34694 
       -0.0408163 1.34694 
       0.0408163 1.34694 
       0.122449 1.34694 
       0.204082 1.34694 
       0.285714 1.34694 
       0.367347 1.34694 
       0.44898 1.34694 
       0.530612 1.34694 
       0.612245 1.34694 
       0.693878 1.34694 
       0.77551 1.34694 
       0.857143 1.34694 
       0.938776 1.34694 
       1.02041 1.34694 
       1.10204 1.34694 
       1.18367 1.34694 
       1.26531 1.34694 
       1.34694 1.34694 
       1.42857 1.34694 
       1.5102 1.34694 
       1.59184 1.34694 
       1.67347 1.34694 
       1.7551 1.34694 
       1.83673 1.34694 
       1.92245 1.34694 
       -1.13061 1.26531 
       -1.83673 1.26531 
       -1.7551 1.26531 
       -1.67347 1.26531 
       -1.59184 1.26531 
       -1.5102 1.26531 
       -1.42857 1.26531 
       -1.34694 1.26531 
       -1.26531 1.26531 
       -1.18367 1.26531 
       -1.10204 1.26531 
       -1.02041 1.26531 
       -0.938776 1.26531 
       -0.857143 1.26531 
       -0.77551 1.26531 
       -0.693878 1.26531 
       -0.612245 1.26531 
       -0.530612 1.26531 
       -0.44898 1.26531 
       -0.367347 1.26531 
       -0.285714 1.26531 
       -0.204082 1.26531 
       -0.122449 1.26531 
       -0.0408163 1.26531 
       0.0408163 1.26531 
       0.122449 1.26531 
       0.204082 1.26531 
       0.285714 1.26531 
       0.367347 1.26531 
       0.44898 1.26531 
       0.530612 1.26531 
       0.612245 1.26531 
       0.693878 1.26531 
       0.77551 1.26531 
       0.857143 1.26531 
       0.938776 1.26531 
       1.02041 1.26531 
       1.10204 1.26531 
       1.18367 1.26531 
       1.26531 1.26531 
       1.34694 1.26531 
       1.42857 1.26531 
       1.5102 1.26531 
       1.59184 1.26531 
       1.67347 1.26531 
       1.7551 1.26531 
       1.83673 1.26531 
       1.92245 1.26531 
       -1.13061 1.18367 
       -1.83673 1.18367 
       -1.7551 1.18367 
       -1.67347 1.18367 
       -1.59184 1.18367 
       -1.5102 1.18367 
       -1.42857 1.18367 
       -1.34694 1.18367 
       -1.26531 1.18367 
       -1.18367 1.18367 
       -1.10204 1.18367 
       -1.02041 1.18367 
       -0.938776 1.18367 
       -0.857143 1.18367 
       -0.77551 1.18367 
       -0.693878 1.18367 
       -0.612245 1.18367 
       -0.530612 1.18367 
       -0.44898 1.18367 
       -0.367347 1.18367 
       -0.285714 1.18367 
       -0.204082 1.18367 
       -0.122449 1.18367 
       -0.0408163 1.18367 
       0.0408163 1.18367 
       0.122449 1.18367 
       0.204082 1.18367 
       0.285714 1.18367 
       0.367347 1.18367 
       0.44898 1.18367 
       0.530612 1.18367 
       0.612245 1.18367 
       0.693878 1.18367 
       0.77551 1.18367 
       0.857143 1.18367 
       0.938776 1.18367 
       1.02041 1.18367 
       1.10204 1.18367 
       1.18367 1.18367 
       1.26531 1.18367 
       1.34694 1.18367 
       1.42857 1.18367 
       1.5102 1.18367 
       1.59184 1.18367 
       1.67347 1.18367 
       1.7551 1.18367 
       1.83673 1.18367 
       1.92245 1.18367 
       -1.13061 1.10204 
       -1.83673 1.10204 
       -1.7551 1.10204 
       -1.67347 1.10204 
       -1.59184 1.10204 
       -1.5102 1.10204 
       -1.42857 1.10204 
       -1.34694 1.10204 
       -1.26531 1.10204 
       -1.18367 1.10204 
       -1.10204 1.10204 
       -1.02041 1.10204 
       -0.938776 1.10204 
       -0.857143 1.10204 
       -0.77551 1.10204 
       -0.693878 1.10204 
       -0.612245 1.10204 
       -0.530612 1.10204 
       -0.44898 1.10204 
       -0.367347 1.10204 
       -0.285714 1.10204 
       -0.204082 1.10204 
       -0.122449 1.10204 
       -0.0408163 1.10204 
       0.0408163 1.10204 
       0.122449 1.10204 
       0.204082 1.10204 
       0.285714 1.10204 
       0.367347 1.10204 
       0.44898 1.10204 
       0.530612 1.10204 
       0.612245 1.10204 
       0.693878 1.10204 
       0.77551 1.10204 
       0.857143 1.10204 
       0.938776 1.10204 
       1.02041 1.10204 
       1.10204 1.10204 
       1.18367 1.10204 
       1.26531 1.10204 
       1.34694 1.10204 
       1.42857 1.10204 
       1.5102 1.10204 
       1.59184 1.10204 
       1.67347 1.10204 
       1.7551 1.10204 
       1.83673 1.10204 
       1.92245 1.10204 
       -1.13061 1.02041 
       -1.83673 1.02041 
       -1.7551 1.02041 
       -1.67347 1.02041 
       -1.59184 1.02041 
       -1.5102 1.02041 
       -1.42857 1.02041 
       -1.34694 1.02041 
       -1.26531 1.02041 
       -1.18367 1.02041 
       -1.10204 1.02041 
       -1.02041 1.02041 
       -0.938776 1.02041 
       -0.857143 1.02041 
       -0.77551 1.02041 
       -0.693878 1.02041 
       -0.612245 1.02041 
       -0.530612 1.02041 
       -0.44898 1.02041 
       -0.367347 1.02041 
       -0.285714 1.02041 
       -0.204082 1.02041 
       -0.122449 1.02041 
       -0.0408163 1.02041 
       0.0408163 1.02041 
       0.122449 1.02041 
       0.204082 1.02041 
       0.285714 1.02041 
       0.367347 1.02041 
       0.44898 1.02041 
       0.530612 1.02041 
       0.612245 1.02041 
       0.693878 1.02041 
       0.77551 1.02041 
       0.857143 1.02041 
       0.938776 1.02041 
       1.02041 1.02041 
       1.10204 1.02041 
       1.18367 1.02041 
       1.26531 1.02041 
       1.34694 1.02041 
       1.42857 1.02041 
       1.5102 1.02041 
       1.59184 1.02041 
       1.67347 1.02041 
       1.7551 1.02041 
       1.83673 1.02041 
       1.92245 1.02041 
       -1.13061 0.938776 
       -1.83673 0.938776 
       -1.7551 0.938776 
       -1.67347 0.938776 
       -1.59184 0.938776 
       -1.5102 0.938776 
       -1.42857 0.938776 
       -1.34694 0.938776 
       -1.26531 0.938776 
       -1.18367 0.938776 
       -1.10204 0.938776 
       -1.02041 0.938776 
       -0.938776 0.938776 
       -0.857143 0.938776 