<VTKFile type="UnstructuredGrid" version="0.1" byte_order="BigEndian">
  <UnstructuredGrid>
    <Piece NumberOfPoints="1937" NumberOfCells="3712">
      <Points>
        <DataArray type="Float32" NumberOfComponents="3" Format="ascii">
       -1 -1 0
       1 -1 0
       1 1 0
       -1 1 0
       -0.95 -1 0
       -0.9 -1 0
       -0.85 -1 0
       -0.8 -1 0
       -0.75 -1 0
       -0.7 -1 0
       -0.65 -1 0
       -0.6 -1 0
       -0.55 -1 0
       -0.5 -1 0
       -0.45 -1 0
       -0.4 -1 0
       -0.35 -1 0
       -0.3 -1 0
       -0.25 -1 0
       -0.2 -1 0
       -0.15 -1 0
       -0.1 -1 0
       -0.05 -1 0
       -2.75224e-12 -1 0
       0.05 -1 0
       0.1 -1 0
       0.15 -1 0
       0.2 -1 0
       0.25 -1 0
       0.3 -1 0
       0.35 -1 0
       0.4 -1 0
       0.45 -1 0
       0.5 -1 0
       0.55 -1 0
       0.6 -1 0
       0.65 -1 0
       0.7 -1 0
       0.75 -1 0
       0.8 -1 0
       0.85 -1 0
       0.9 -1 0
       0.95 -1 0
       1 -0.95 0
       1 -0.9 0
       1 -0.85 0
       1 -0.8 0
       1 -0.75 0
       1 -0.7 0
       1 -0.65 0
       1 -0.6 0
       1 -0.55 0
       1 -0.5 0
       1 -0.45 0
       1 -0.4 0
       1 -0.35 0
       1 -0.3 0
       1 -0.25 0
       1 -0.2 0
       1 -0.15 0
       1 -0.1 0
       1 -0.05 0
       1 -2.75224e-12 0
       1 0.05 0
       1 0.1 0
       1 0.15 0
       1 0.2 0
       1 0.25 0
       1 0.3 0
       1 0.35 0
       1 0.4 0
       1 0.45 0
       1 0.5 0
       1 0.55 0
       1 0.6 0
       1 0.65 0
       1 0.7 0
       1 0.75 0
       1 0.8 0
       1 0.85 0
       1 0.9 0
       1 0.95 0
       0.95 1 0
       0.9 1 0
       0.85 1 0
       0.8 1 0
       0.75 1 0
       0.7 1 0
       0.65 1 0
       0.6 1 0
       0.55 1 0
       0.5 1 0
       0.45 1 0
       0.4 1 0
       0.35 1 0
       0.3 1 0
       0.25 1 0
       0.2 1 0
       0.15 1 0
       0.1 1 0
       0.05 1 0
       2.75224e-12 1 0
       -0.05 1 0
       -0.1 1 0
       -0.15 1 0
       -0.2 1 0
       -0.25 1 0
       -0.3 1 0
       -0.35 1 0
       -0.4 1 0
       -0.45 1 0
       -0.5 1 0
       -0.55 1 0
       -0.6 1 0
       -0.65 1 0
       -0.7 1 0
       -0.75 1 0
       -0.8 1 0
       -0.85 1 0
       -0.9 1 0
       -0.95 1 0
       -1 0.95 0
       -1 0.9 0
       -1 0.85 0
       -1 0.8 0
       -1 0.75 0
       -1 0.7 0
       -1 0.65 0
       -1 0.6 0
       -1 0.55 0
       -1 0.5 0
       -1 0.45 0
       -1 0.4 0
       -1 0.35 0
       -1 0.3 0
       -1 0.25 0
       -1 0.2 0
       -1 0.15 0
       -1 0.1 0
       -1 0.05 0
       -1 2.75224e-12 0
       -1 -0.05 0
       -1 -0.1 0
       -1 -0.15 0
       -1 -0.2 0
       -1 -0.25 0
       -1 -0.3 0
       -1 -0.35 0
       -1 -0.4 0
       -1 -0.45 0
       -1 -0.5 0
       -1 -0.55 0
       -1 -0.6 0
       -1 -0.65 0
       -1 -0.7 0
       -1 -0.75 0
       -1 -0.8 0
       -1 -0.85 0
       -1 -0.9 0
       -1 -0.95 0
       0.025 -0.956699 0
       -0.025 0.954039 0
       0.958991 0.025 0
       -0.957693 -0.0251361 0
       -0.225 -0.956699 0
       0.95612 -0.223439 0
       0.225088 0.955595 0
       -0.95244 0.219116 0
       0.275 -0.956699 0
       -0.275025 0.954027 0
       0.957623 0.275373 0
       -0.956699 -0.275 0
       -0.475 -0.956699 0
       0.952249 -0.477935 0
       0.475 0.953984 0
       -0.954952 0.473819 0
       0.475 -0.956699 0
       0.955862 0.474023 0
       -0.47493 0.95598 0
       -0.957575 -0.475 0
       0.955383 0.674241 0
       -0.956699 -0.675 0
       0.675 -0.956699 0
       -0.675 0.953984 0
       -0.675 -0.956699 0
       0.957694 -0.674759 0
       0.675 0.955937 0
       -0.95904 0.674767 0
       -0.956699 -0.825 0
       0.825 -0.956699 0
       0.95768 0.825 0
       -0.827224 0.95612 0
       -0.82546 -0.955573 0
       0.955573 -0.82546 0
       0.824884 0.954082 0
       -0.951824 0.817527 0
       0.125 -0.956699 0
       0.949846 0.125731 0
       -0.125 0.954039 0
       -0.951675 -0.131257 0
       -0.075 -0.956699 0
       0.955542 -0.0731413 0
       0.0761208 0.953273 0
       -0.95389 0.0712368 0
       0.375 -0.956699 0
       0.954079 0.381915 0
       -0.375 0.956699 0
       -0.956699 -0.375 0
       0.575 -0.956699 0
       0.952488 0.56777 0
       -0.575 0.954039 0
       -0.956699 -0.575 0
       0.952459 -0.317294 0
       -0.956699 0.325 0
       -0.325 -0.956699 0
       0.3234 0.95508 0
       -0.575 -0.956699 0
       0.952324 -0.570981 0
       0.575 0.952735 0
       -0.95285 0.568994 0
       -0.957815 -0.923066 0
       0.923066 -0.957815 0
       0.961058 0.929747 0
       -0.924583 0.959931 0
       0.075 -0.956699 0
       0.05 -0.913397 0
       -2.57832e-12 -0.913397 0
       0.025 -0.870096 0
       -0.025 -0.870096 0
       -2.56442e-12 -0.826795 0
       0.05 -0.826795 0
       0.025 -0.783494 0
       -0.025 -0.783494 0
       -2.56158e-12 -0.740192 0
       -0.05 -0.740192 0
       -0.025 -0.696891 0
       -0.075 -0.696891 0
       -0.05 -0.65359 0
       -2.56001e-12 -0.65359 0
       -0.025 -0.610289 0
       0.025 -0.610289 0
       -2.55776e-12 -0.566987 0
       -0.05 -0.566987 0
       -0.025 -0.523686 0
       0.025 -0.523686 0
       -2.55305e-12 -0.480385 0
       -0.05 -0.480385 0
       -0.025 -0.437083 0
       0.025 -0.437083 0
       -2.54189e-12 -0.393782 0
       0.05 -0.393782 0
       0.025 -0.350481 0
       -0.025 -0.350481 0
       -2.52926e-12 -0.30718 0
       -0.05 -0.30718 0
       -0.025 -0.263878 0
       0.025 -0.263878 0
       -2.51541e-12 -0.220577 0
       -0.05 -0.220577 0
       -0.025 -0.177276 0
       0.025 -0.177276 0
       -2.50055e-12 -0.133975 0
       0.05 -0.133975 0
       0.025 -0.0906733 0
       -0.025 -0.0906733 0
       -2.48671e-12 -0.0473721 0
       0.05 -0.0473721 0
       -0.05 -0.0473721 0
       0.025 -0.00407079 0
       0.075 -0.00407079 0
       0.05 0.0392305 0
       0.1 0.0392305 0
       0.075 0.0825318 0
       0.125 0.0825318 0
       0.15 0.0392305 0
       0.175 0.0825318 0
       0.15 0.125833 0
       0.2 0.0392305 0
       0.2 0.125833 0
       0.175 0.169134 0
       0.225 0.169134 0
       0.2 0.212436 0
       0.25 0.212436 0
       0.225 0.255737 0
       0.175 0.255737 0
       0.275 0.255737 0
       0.3 0.212436 0
       0.325 0.255737 0
       0.2 0.299038 0
       0.15 0.299038 0
       0.35 0.212436 0
       0.375 0.255737 0
       0.175 0.342339 0
       0.125 0.342339 0
       0.4 0.212436 0
       0.15 0.385641 0
       0.1 0.385641 0
       0.425 0.255737 0
       0.4 0.299038 0
       0.45 0.299038 0
       0.425 0.342339 0
       0.45 0.212436 0
       0.125 0.428942 0
       0.075 0.428942 0
       0.05 0.385641 0
       0.025 0.428942 0
       -2.57732e-12 0.385641 0
       -0.025 0.428942 0
       -0.05 0.385641 0
       -0.075 0.428942 0
       -0.1 0.385641 0
       -0.125 0.428942 0
       -0.15 0.385641 0
       -0.175 0.428942 0
       -0.2 0.385641 0
       -0.225 0.428942 0
       -0.25 0.385641 0
       -0.275 0.428942 0
       -0.3 0.385641 0
       -0.325 0.428942 0
       -0.35 0.385641 0
       -0.375 0.428942 0
       -0.4 0.385641 0
       -0.375 0.342339 0
       -0.425 0.428942 0
       -0.425 0.342339 0
       -0.4 0.299038 0
       -0.45 0.299038 0
       -0.425 0.255737 0
       -0.475 0.255737 0
       -0.45 0.212436 0
       0.475 0.342339 0
       0.45 0.385641 0
       -0.2 0.472243 0
       -0.5 0.299038 0
       -0.5 0.212436 0
       -0.475 0.169134 0
       0.5 0.385641 0
       0.475 0.428942 0
       0.05 0.472243 0
       -0.4 0.472243 0
       -0.45 0.472243 0
       0.525 0.428942 0
       0.5 0.472243 0
       0.525 0.342339 0
       -0.525 0.169134 0
       -0.5 0.125833 0
       -0.425 0.515544 0
       -0.475 0.515544 0
       -0.45 0.125833 0
       -0.475 0.0825318 0
       -0.525 0.0825318 0
       -0.5 0.0392305 0
       -0.55 0.0392305 0
       -0.525 -0.00407079 0
       -0.475 -0.00407079 0
       -0.5 -0.0473721 0
       -0.45 -0.0473721 0
       -0.475 -0.0906733 0
       -0.525 -0.0906733 0
       -0.5 -0.133975 0
       -0.55 -0.133975 0
       -0.525 -0.177276 0
       -0.475 -0.177276 0
       -0.5 -0.220577 0
       -0.55 -0.220577 0
       -0.525 -0.263878 0
       -0.475 -0.263878 0
       -0.5 -0.30718 0
       -0.45 -0.30718 0
       -0.475 -0.350481 0
       -0.525 -0.350481 0
       -0.5 -0.393782 0
       -0.55 -0.393782 0
       -0.525 -0.437083 0
       -0.475 -0.437083 0
       -0.5 -0.480385 0
       0.55 0.472243 0
       0.525 0.515544 0
       0.475 0.515544 0
       -0.55 -0.480385 0
       -0.525 -0.523686 0
       -0.475 -0.523686 0
       -0.175 0.342339 0
       0.425 0.169134 0
       0.475 0.169134 0
       0.45 0.125833 0
       0.5 0.125833 0
       0.475 0.0825318 0
       0.525 0.0825318 0
       0.5 0.0392305 0
       0.55 0.0392305 0
       0.525 -0.00407079 0
       0.575 0.0825318 0
       -0.575 -0.523686 0
       0.575 0.515544 0
       0.575 -0.00407079 0
       0.55 -0.0473721 0
       0.5 -0.0473721 0
       0.525 -0.0906733 0
       0.475 -0.0906733 0
       0.5 -0.133975 0
       0.45 -0.133975 0
       0.475 -0.177276 0
       0.525 -0.177276 0
       0.5 -0.220577 0
       0.45 -0.220577 0
       0.475 -0.263878 0
       0.525 -0.263878 0
       0.5 -0.30718 0
       0.55 -0.30718 0
       0.525 -0.350481 0
       0.475 -0.350481 0
       0.5 -0.393782 0
       0.45 -0.393782 0
       0.475 -0.437083 0
       0.525 -0.437083 0
       0.5 -0.480385 0
       0.45 -0.480385 0
       0.475 -0.523686 0
       0.525 -0.523686 0
       0.425 -0.523686 0
       0.55 0.558846 0
       -0.45 0.558846 0
       -0.5 0.558846 0
       0.075 -0.783494 0
       -0.525 0.515544 0
       -0.55 0.558846 0
       -0.575 0.515544 0
       -0.5 -0.566987 0
       -0.45 -0.566987 0
       0.45 -0.566987 0
       0.4 -0.566987 0
       0.6 -0.0473721 0
       0.6 0.558846 0
       -0.6 0.558846 0
       0.6 0.472243 0
       -0.525 0.602147 0
       -0.625 0.515544 0
       0.575 0.602147 0
       0.375 -0.523686 0
[...]
      <PointData Scalars="scalars">
        <DataArray type="Float32" Name="field" NumberOfComponents="2" Format="ascii">
       2.9113 2.90857 
       2.87523 2.87526 
       2.90805 2.90791 
       2.87535 2.87635 
       2.71834 2.95252 
       2.4343 2.95814 
       2.17041 2.95949 
       1.91946 2.95973 
       1.68925 2.95867 
       1.47135 2.95363 
       1.26784 2.95529 
       1.08248 2.95527 
       0.909983 2.95527 
       0.752483 2.95526 
       0.609983 2.95525 
       0.482483 2.95525 
       0.369983 2.95524 
       0.272483 2.95523 
       0.189983 2.95523 
       0.122483 2.95522 
       0.0699829 2.95521 
       0.0324829 2.95521 
       0.0099829 2.9552 
       0.0024829 2.95519 
       0.0099829 2.95519 
       0.0324829 2.95518 
       0.0699829 2.95517 
       0.122483 2.95517 
       0.189983 2.95516 
       0.272483 2.95515 
       0.369983 2.95515 
       0.482483 2.95514 
       0.609983 2.95513 
       0.752483 2.95513 
       0.909983 2.95512 
       1.08248 2.95511 
       1.26998 2.95511 
       1.47248 2.9551 
       1.68998 2.95509 
       1.92246 2.95509 
       2.16964 2.95517 
       2.43001 2.95564 
       2.68197 2.9523 
       2.9497 2.67418 
       2.95761 2.41907 
       2.9592 2.16698 
       2.95926 1.92732 
       2.95747 1.70278 
       2.95317 1.48095 
       2.95563 1.2712 
       2.95278 1.07745 
       2.95749 0.903569 
       2.95754 0.757135 
       2.95238 0.613976 
       2.95474 0.479722 
       2.95241 0.362154 
       2.95691 0.262605 
       2.95919 0.184418 
       2.96135 0.121585 
       2.96061 0.074442 
       2.95358 0.0363429 
       2.95466 0.00887085 
       2.95628 0.00142101 
       2.95628 0.0106274 
       2.95193 0.0319468 
       2.95088 0.0662831 
       2.95392 0.117888 
       2.95539 0.186887 
       2.95549 0.269188 
       2.95343 0.366283 
       2.95948 0.479507 
       2.96062 0.608057 
       2.95936 0.754619 
       2.95753 0.911485 
       2.95291 1.08476 
       2.95467 1.27249 
       2.95462 1.47304 
       2.95535 1.69062 
       2.95584 1.91987 
       2.95294 2.16712 
       2.95478 2.43643 
       2.95832 2.71635 
       2.71728 2.95797 
       2.44462 2.95495 
       2.18336 2.9522 
       1.92792 2.9526 
       1.6893 2.95194 
       1.47125 2.95298 
       1.27001 2.95406 
       1.0832 2.95252 
       0.910074 2.95167 
       0.752464 2.95227 
       0.61059 2.9519 
       0.483798 2.95179 
       0.371905 2.95299 
       0.274244 2.95411 
       0.190714 2.95441 
       0.122126 2.95268 
       0.0689932 2.9506 
       0.0310261 2.95095 
       0.00841565 2.95164 
       0.0015905 2.95202 
       0.00977857 2.9524 
       0.0323324 2.9524 
       0.0696913 2.95192 
       0.122717 2.95147 
       0.190008 2.95218 
       0.272869 2.95142 
       0.37194 2.95268 
       0.483304 2.95481 
       0.608265 2.95446 
       0.750406 2.95278 
       0.909629 2.95186 
       1.08286 2.95234 
       1.2696 2.95231 
       1.47284 2.95181 
       1.69452 2.95169 
       1.93134 2.95322 
       2.17823 2.95577 
       2.43396 2.95774 
       2.6822 2.95324 
       2.95026 2.68075 
       2.95323 2.42139 
       2.95183 2.15294 
       2.95624 1.9117 
       2.95617 1.69691 
       2.95274 1.47709 
       2.95797 1.26828 
       2.95455 1.07721 
       2.9576 0.900321 
       2.95898 0.748586 
       2.95867 0.613848 
       2.95636 0.493095 
       2.95195 0.377306 
       2.95515 0.272473 
       2.95266 0.184297 
       2.95673 0.115231 
       2.95601 0.0686984 
       2.95045 0.0307288 
       2.95343 0.00476977 
       2.95543 -0.000553446 
       2.95532 0.00771719 
       2.95207 0.0279088 
       2.95725 0.0660969 
       2.95775 0.122555 
       2.95298 0.191991 
       2.95574 0.273183 
       2.95572 0.370068 
       2.95523 0.482691 
       2.95563 0.610243 
       2.95574 0.752529 
       2.95534 0.9099 
       2.9553 1.08247 
       2.9553 1.26992 
       2.95523 1.47235 
       2.9552 1.68989 
       2.95525 1.92256 
       2.95538 2.17083 
       2.95566 2.4376 
       2.9554 2.71927 
       0.00375 2.74592 
       0.00367401 2.73118 
       2.75633 0.00239851 
       2.75081 0.00169889 
       0.15375 2.74712 
       2.74675 0.15175 
       0.154323 2.74082 
       2.7161 0.142302 
       0.22875 2.74472 
       0.228789 2.72892 
       2.75112 0.226341 
       2.74277 0.226213 
       0.67875 2.74833 
       2.71448 0.692216 
       0.678921 2.73321 
       2.73692 0.675055 
       0.67875 2.74376 
       2.74852 0.675682 
       0.677563 2.73897 
       2.75016 0.679389 
       2.74446 1.36901 
       2.74905 1.36844 
       1.36875 2.74279 
       1.36876 2.72742 
       1.36718 2.7471 
       2.74409 1.36524 
       1.36748 2.74541 
       2.74835 1.35959 
       2.74978 2.04426 
       2.04382 2.74217 
       2.7503 2.03814 
       2.05856 2.7391 
       2.04563 2.74874 
       2.73845 2.04655 
       2.05059 2.74149 
       2.70446 1.99789 
       0.04875 2.74544 
       2.69393 0.0491671 
       0.0487473 2.73044 
       2.71502 0.0524752 
       0.01875 2.7464 
       2.73795 0.0147561 
       0.0195546 2.72645 
       2.72575 0.0137204 
       0.42375 2.74424 
       2.72931 0.440091 
       0.424856 2.74263 
       2.7488 0.420077 
       0.99375 2.74328 
       2.72173 0.967973 
       0.993554 2.72833 
       2.74893 0.99386 
       2.71721 0.298546 
       2.74027 0.314949 
       0.31875 2.74761 
       0.315249 2.73767 
       0.99375 2.74881 
       2.715 0.974834 
       0.994049 2.7272 
       2.72199 0.968068 
       2.7629 2.56491 
       2.5718 2.75347 
       2.76828 2.60928 
       2.57838 2.76364 
       0.01875 2.74568 
       0.009375 2.50476 
       0.001875 2.50476 
       0.00375 2.27308 
       0.00375 2.27308 
       0.001875 2.05264 
       0.009375 2.05264 
       0.00375 1.84346 
       0.00375 1.84346 
       0.001875 1.64553 
       0.009375 1.64553 
       0.00375 1.45885 
       0.01875 1.45885 
       0.009375 1.28341 
       0.001875 1.28341 
       0.00375 1.11923 
       0.00375 1.11923 
       0.001875 0.966299 
       0.009375 0.966299 
       0.00375 0.824616 
       0.00375 0.824616 
       0.001875 0.694184 
       0.009375 0.694184 
       0.00375 0.575001 
       0.00375 0.575001 
       0.001875 0.467068 
       0.009375 0.467068 
       0.00375 0.370386 
       0.00375 0.370386 
       0.001875 0.284953 
       0.009375 0.284953 
       0.00375 0.21077 
       0.00375 0.21077 
       0.001875 0.147838 
       0.009375 0.147838 
       0.00375 0.0961552 
       0.00375 0.0961552 
       0.001875 0.0557226 
       0.009375 0.0557226 
       0.00375 0.02654 
       0.00375 0.02654 
       0.001875 0.00860734 
       0.009375 0.00860734 
       0.009375 0.00860734 
       0.00375 0.00192471 
       0.01875 0.00192471 
       0.009375 0.00649209 
       0.031875 0.00649209 
       0.01875 0.0223095 
       0.04875 0.0223095 
       0.069375 0.00649209 
       0.09375 0.0223095 
       0.069375 0.0493769 
       0.121875 0.00649209 
       0.121875 0.0493769 
       0.09375 0.0876942 
       0.15375 0.0876942 
       0.121875 0.137262 
       0.189375 0.137262 
       0.15375 0.198079 
       0.09375 0.198079 
       0.22875 0.198079 
       0.271875 0.137262 
       0.31875 0.198079 
       0.121875 0.270146 
       0.069375 0.270146 
       0.369375 0.137262 
       0.42375 0.198079 
       0.09375 0.353464 
       0.04875 0.353464 
       0.481875 0.137262 
       0.069375 0.448031 
       0.031875 0.448031 
       0.54375 0.198079 
       0.481875 0.270146 
       0.609375 0.270146 
       0.54375 0.353464 
       0.609375 0.137262 
       0.04875 0.553849 
       0.01875 0.553849 
       0.009375 0.448031 
       0.00375 0.553849 
       0.001875 0.448031 
       0.00375 0.553849 
       0.009375 0.448031 
       0.01875 0.553849 
       0.031875 0.448031 
       0.04875 0.553849 
       0.069375 0.448031 
       0.09375 0.553849 
       0.121875 0.448031 
       0.15375 0.553849 
       0.189375 0.448031 
       0.22875 0.553849 
       0.271875 0.448031 
       0.31875 0.553849 
       0.369375 0.448031 
       0.42375 0.553849 
       0.481875 0.448031 
       0.42375 0.353464 
       0.54375 0.553849 
       0.54375 0.353464 
       0.481875 0.270146 
       0.609375 0.270146 
       0.54375 0.198079 
       0.67875 0.198079 
       0.609375 0.137262 
       0.67875 0.353464 
       0.609375 0.448031 
       0.121875 0.670916 
       0.751875 0.270146 
       0.751875 0.137262 
       0.67875 0.0876942 
       0.751875 0.448031 
       0.67875 0.553849 
       0.009375 0.670916 
       0.481875 0.670916 
       0.609375 0.670916 
       0.82875 0.553849 
       0.751875 0.670916 
       0.82875 0.353464 
       0.82875 0.0876942 
       0.751875 0.0493769 
       0.54375 0.799233 
       0.67875 0.799233 
       0.609375 0.0493769 
       0.67875 0.0223095 
       0.82875 0.0223095 
       0.751875 0.00649209 
       0.909375 0.00649209 
       0.82875 0.00192471 
       0.67875 0.00192471 
       0.751875 0.00860734 
       0.609375 0.00860734 
       0.67875 0.02654 
       0.82875 0.02654 
       0.751875 0.0557226 
       0.909375 0.0557226 
       0.82875 0.0961552 
       0.67875 0.0961552 
       0.751875 0.147838 
       0.909375 0.147838 
       0.82875 0.21077 
       0.67875 0.21077 
       0.751875 0.284953 
       0.609375 0.284953 
       0.67875 0.370386 
       0.82875 0.370386 
       0.751875 0.467068 
       0.909375 0.467068 
       0.82875 0.575001 
       0.67875 0.575001 
       0.751875 0.694184 
       0.909375 0.670916 
       0.82875 0.799233 
       0.67875 0.799233 
       0.909375 0.694184 
       0.82875 0.824616 
       0.67875 0.824616 
       0.09375 0.353464 
       0.54375 0.0876942 
       0.67875 0.0876942 
       0.609375 0.0493769 
       0.751875 0.0493768 
       0.67875 0.0223095 
       0.82875 0.0223095 
       0.751875 0.00649209 
       0.909375 0.00649208 
       0.82875 0.00192471 
       0.99375 0.0223094 
       0.993751 0.824617 
       0.99375 0.799233 
       0.99375 0.0019247 
       0.909375 0.00860734 
       0.751875 0.00860734 
       0.82875 0.02654 
       0.67875 0.02654 
       0.751875 0.0557226 
       0.609375 0.0557226 
       0.67875 0.0961552 
       0.82875 0.0961552 
       0.751875 0.147838 
       0.609375 0.147838 
       0.67875 0.21077 
       0.82875 0.21077 
       0.751875 0.284953 
       0.909375 0.284953 
       0.82875 0.370386 
       0.67875 0.370386 
       0.751875 0.467068 
       0.609375 0.467068 
       0.67875 0.575001 
       0.82875 0.575001 
       0.751875 0.694184 
       0.609375 0.694184 
       0.67875 0.824616 
       0.82875 0.824616 
       0.54375 0.824616 
       0.909375 0.938801 
       0.609375 0.938801 
       0.751875 0.938801 
       0.01875 1.84346 
       0.82875 0.799233 
       0.909375 0.938801 
       0.99375 0.799233 
       0.751875 0.966299 
       0.609375 0.966299 
       0.609375 0.966299 
       0.481875 0.966299 
       1.08187 0.0086072 
       1.08187 0.938801 
       1.08188 0.938801 
       1.08187 0.670916 
       0.82875 1.08962 
       1.17375 0.799233 
       0.99375 1.08962 
       0.42375 0.824616 
       0.54375 1.11923 
       1.17375 1.08962 
       0.00375 0.0223095 
       0.369375 0.966299 
       0.67875 1.11923 
       0.54375 1.11923 
       0.481875 0.966299 
       1.26937 0.9388 
       0.42375 1.11923 
       0.369375 0.966299 
       0.09375 0.553849 
       0.481875 1.28341 
       1.08188 1.25169 
       0.909376 1.25168 
       1.26937 1.25169 
       0.42375 0.198079 
       0.31875 0.824616 
       0.481875 0.938801 
       1.36875 1.08962 
       1.36875 0.799233 
       0.369375 1.28341 
       0.271875 0.966299 
       1.47188 0.938794 
       1.36875 1.08962 
       1.26937 0.670916 
       1.47187 0.670917 
       1.36875 0.553849 
       0.031875 1.64553 
       1.17375 1.425 
       1.36875 1.425 
       0.42375 1.45885 
       0.00375 0.353464 
       0.54375 0.02654 
       0.22875 0.824616 
       0.271875 0.694184 
       1.57875 0.553849 
       1.47188 0.448031 
       1.57872 1.08961 
       1.47186 1.2517 
       0.04875 1.45885 
       0.069375 1.64553 
       0.54375 0.0223095 
       0.481875 0.448031 
       0.189375 0.966299 
       0.22875 1.11923 
       1.26937 1.60956 
       1.47189 1.60955 
       1.68938 0.448031 
       1.57875 0.353464 
       1.68911 1.25167 
       1.57878 1.42502 
       1.36875 1.425 
       1.47187 1.60957 
       1.26938 1.60957 
       1.68922 1.60963 
       1.08188 1.60957 
       0.99375 0.21077 
       1.08187 0.284953 
       1.17375 0.21077 
       1.26937 0.284953 
       1.36875 0.21077 
       1.47187 0.284953 
       1.36875 0.370386 
       1.57875 0.370386 
       1.47187 0.467068 
       1.57876 0.210775 
       1.68937 0.467068 
       1.57874 0.575004 
       1.47188 0.147838 
       1.68931 0.147793 
       1.57882 0.0961435 
       0.82875 1.11923 
       1.68938 0.670912 
       0.54375 1.45885 
       0.481875 1.64553 
       0.609375 1.64553 
       0.369375 1.64553 
       0.99375 0.0223095 
       1.08188 0.00649209 
       1.17375 0.0223095 
       1.26938 0.00649209 
       1.36875 0.0223095 
       1.47187 0.00649298 
       1.57875 0.0223146 
       1.68935 0.00649282 
       1.57875 0.00192471 
       1.47188 0.0493771 
       1.68939 0.0493848 
       0.04875 0.0876942 
       0.54375 0.370386 
       0.01875 0.575001 
       0.54375 0.370386 
       0.481875 0.284953 
       0.42375 0.370386 
       0.369375 0.284953 
       0.31875 0.370386 
       0.271875 0.284953 
       0.31875 0.21077 
       0.22875 0.21077 
       0.271875 0.147838 
       0.189375 0.147838 
       0.22875 0.0961552 
       0.15375 0.0961552 
       0.189375 0.0557226 
       0.22875 0.370386 
       0.909375 0.137262 
       0.82875 0.0876942 
       0.01875 0.370386 
       0.031875 0.467068 
       0.04875 0.370386 
       0.99375 0.21077 
       0.54375 0.00192471 
       1.17375 0.00192304 
       0.069375 0.670916 
       0.121875 0.670916 
       0.09375 0.799233 
       0.15375 0.799233 
       0.121875 0.938801 
       0.189375 0.938801 
       0.15375 1.08962 
       0.09375 1.08962 
       0.121875 1.25169 
       0.069375 1.25169 
       0.189375 1.25169 
       0.0937502 1.425 
       0.0487508 1.425 
       0.0693739 1.60957 
       0.0318795 1.60957 
       0.0187506 1.425 
       0.00939144 1.60957 
       0.00375 1.425 
       0.00187379 1.60956 
       0.00375 1.425 
       0.00937445 1.60957 
       0.01875 1.425 
       0.0318755 1.60957 
       0.04875 1.425 
       0.0693752 1.60957 
       0.09375 1.425 
       0.121876 1.60957 
       0.121874 1.60957 
       0.09375 0.00192471 
       0.15375 0.00192471 
       0.121875 0.00860734 
       0.15375 1.11923 
       0.189375 1.28341 
       0.01875 0.0961552 
       0.481875 0.0557226 
       0.031875 0.694184 
       0.54375 1.08962 
       0.67875 1.11923 
       0.609375 1.28341 
       0.751875 1.28341 
       0.67875 1.45885 
       0.82875 1.45885 
       0.909375 1.28341 
       0.99375 1.45885 
       1.08187 1.28341 
       1.17375 1.45885 
       1.26937 1.28341 
       1.36875 1.45885 
       1.47187 1.28341 
       1.57875 1.45885 
       1.68945 1.28338 
       1.08188 0.147838 
       1.17375 0.21077 
       1.26938 0.147838 
       1.36875 0.21077 
       1.47187 0.147837 
       1.57875 0.21077 
       1.47188 0.284953 
       1.68938 0.14783 
       1.68937 0.284957 
       1.57875 0.370386 
       0.54375 1.45885 
       0.15375 1.425 
       0.189376 1.60957 
       1.57876 1.42501 
       1.68946 1.6096 
       0.009375 0.670916 
       1.26938 1.64553 
       0.909375 1.64553 
       0.609375 1.64553 
       0.481875 1.64553 
       1.80386 1.45888 
       1.68948 1.64551 
       1.80385 0.0960771 
       1.68951 0.0556988 
       1.80374 0.210763 
       1.80395 1.4252 
       1.80375 0.353464 
       1.80374 0.00194131 
       0.0937431 1.80539 
       0.153789 1.80547 
       0.0937533 1.8054 
       1.57882 1.80528 
       1.17374 1.80532 
       0.993777 1.80536 
       1.57886 1.80538 
       0.00377592 1.80529 
       0.0187513 1.80538 
       1.80428 1.80525 
       1.80391 1.80508 
       1.80368 0.370432 
       1.68938 0.467068 
       1.80354 1.08949 
       1.8037 0.575012 
       0.09375 1.45885 
       0.15375 0.21077 
       0.15375 0.824616 
       1.36875 0.353464 
       1.17375 0.553849 
       0.189375 0.00649209 
       0.271875 0.467068 
       0.42375 1.84346 
       0.31875 1.84346 
       0.15375 0.353464 
       1.36875 1.11923 
       0.22875 0.799233 
       0.271875 0.938801 
       1.36875 0.0961549 
       0.001875 1.25169 
       0.069375 1.25169 
       0.121875 1.28341 
       0.15375 1.45885 
       0.54375 1.84346 
       0.42375 1.84346 
       1.92187 0.448017 
       1.9224 1.64535 
       1.80378 1.84334 
       1.92176 0.467197 
       1.80385 0.575131 
       1.92143 1.28319 
       0.01875 0.02654 
       0.031875 0.00860734 
       0.04875 0.575001 
       0.069375 0.694184 
       1.80409 1.11906 
       1.68938 0.270146 
       1.92167 0.270223 
       0.22875 0.00192471 
       0.271875 0.0557226 
       0.22875 0.02654 
       0.42375 1.08962 
       0.481875 1.25169 
       1.08188 0.694184 
       1.17376 0.824625 
       1.92165 0.467165 
       1.92333 0.0558262 
       1.80381 0.0265378 
       1.6949 2.01345 
       1.4727 2.01304 
       1.68974 2.01181 
       1.92094 1.61001 
       1.92144 2.00966 
       1.93088 2.00694 
       2.03996 1.80427 
       1.92171 0.00649785 
       1.92139 0.284987 
       0.069375 0.467068 
       0.09375 0.370386 
       1.36875 0.0961551 
       0.22875 0.353464 
       0.67875 0.553849 
       0.31875 0.0876942 
       0.04875 1.84346 
       0.09375 1.84346 
       0.069375 2.05264 
       0.121875 2.05264 
       0.031875 0.270146 
       0.42375 0.824616 
       0.31875 0.824616 
       0.271875 0.966299 
       1.17375 0.00192471 
       0.01875 0.00192471 
       0.04875 0.00192471 
       0.031875 0.00649209 
       0.069375 0.00649209 
       0.04875 0.0223095 
       0.09375 0.0223095 
       0.069375 0.0493769 
       0.121875 0.0493769 
       0.15375 0.0223095 
       0.189375 0.0493769 
       0.15375 0.0876942 
       0.22875 0.0223095 
       0.271875 0.0493769 
       0.069375 1.28341 
       0.04875 0.575001 
       0.069375 0.284953 
       0.121875 0.284953 
       0.15375 0.370386 
       0.189375 0.284953 
       0.15375 0.21077 
       0.22875 0.21077 
       0.189375 0.147838 
       0.22875 0.370386 
       1.36875 0.575001 
       0.031875 0.0493769 
       0.04875 0.0876942 
       0.01875 0.0876942 
       0.04875 1.08962 
       0.271875 0.670916 
       0.31875 0.799233 
       0.271875 0.670916 
       1.68939 0.00862149 
       1.92152 0.0087555 
       0.369375 0.9388 
       0.031875 0.137262 
       0.009375 0.137262 
       0.009375 1.28341 
       0.01875 1.11923 
       0.031875 2.05264 
       0.121881 2.01266 
       0.189292 2.01246 
       0.228717 1.80548 
       0.270944 2.01757 
       0.318319 1.80603 
       0.365163 2.02156 
       0.422717 1.80649 
       0.478408 2.01693 
       0.543056 1.80612 
       0.481787 1.60949 
       0.0692613 2.01278 
       0.609052 2.01335 
       1.08171 2.01217 
       2.04888 0.0951313 
       2.04487 1.8419 
       2.04482 0.575701 
       2.04444 0.576771 
       1.92259 0.694772 
       2.04513 1.1188 
       2.04554 0.0262061 
       1.92154 0.00832251 
       0.271875 1.64553 
       0.22875 0.824616 
       0.04875 0.02654 
       0.09375 0.00192471 
       1.68938 0.694193 
       0.31875 0.0223095 
       1.80375 0.198079 
       1.57875 0.198079 
       2.04419 0.19794 
       0.09375 0.575001 
       0.069375 0.467068 
       1.57877 0.0265394 
       0.121875 1.28341 
       0.42375 0.02654 
       0.271875 0.00649209 
       0.481875 0.467068 
       0.31875 0.02654 